{"low_consensus_lines":4,"transcribed_lines":35,"frame0":[{"clusters_x":[1065.9772556068012,1139.1777899461438],"clusters_y":[158.49773562446154,175.86739204567806],"clusters_text":[["32","32","32"]],"consensus_text":"32","consensus_score":3,"edited_consensus_text":"","extract_index":[0,1,0],"flagged":false,"gold_standard":[false,false,false],"gutter_label":0,"line_editor":"","line_slope":0.11,"low_consensus":false,"number_views":3,"original_transcriber":"","seen":false,"slope_label":0,"user_ids":[2499181,2493061,2330323]},{"clusters_x":[115.61123727223276,234.71716538074992],"clusters_y":[131.20261871851483,132.44335748163058],"clusters_text":[["1817","1817","1817"]],"consensus_text":"1817","consensus_score":3,"edited_consensus_text":"","extract_index":[1,0,1],"flagged":false,"gold_standard":[false,false,false],"gutter_label":0,"line_editor":"","line_slope":0.11,"low_consensus":false,"number_views":3,"original_transcriber":"","seen":false,"slope_label":0,"user_ids":[2499181,2493061,2330323]},{"clusters_x":[72.18720270818528,240.92059888989957],"clusters_y":[209.36589513233275,200.6811260822766],"clusters_text":[["April","April","April"],["11","11","11"]],"consensus_text":"April 11","consensus_score":3,"edited_consensus_text":"","extract_index":[2,2,2],"flagged":false,"gold_standard":[false,false,false],"gutter_label":0,"line_editor":"","line_slope":0.11,"low_consensus":false,"number_views":3,"original_transcriber":"","seen":false,"slope_label":0,"user_ids":[2499181,2493061,2330323]},{"clusters_x":[270.6970986651945,742.1580453605668],"clusters_y":[193.2369538100112,209.36589513233275],"clusters_text":[["Lord","Lord","Lord"],["Talbots","Talbots","Talbots"],["Brine","Brine","Brine"],["spring","spring","spring"]],"consensus_text":"Lord Talbots Brine spring","consensus_score":3,"edited_consensus_text":"","extract_index":[3,3,3],"flagged":false,"gold_standard":[false,false,false],"gutter_label":0,"line_editor":"","line_slope":0.11,"low_consensus":false,"number_views":3,"original_transcriber":"","seen":false,"slope_label":0,"user_ids":[2499181,2493061,2330323]},{"clusters_x":[384.8402846992362,860.0232820344099],"clusters_y":[258.993339541309,275.1223045278514],"clusters_text":[["Specific","Specific","Specific"],["gravity","gravity","gravity"],["of","of","of"],["water","water","water"],["1136.","1136.","1136."]],"consensus_text":"Specific gravity of water 1136.","consensus_score":3,"edited_consensus_text":"","extract_index":[4,4,4],"flagged":false,"gold_standard":[false,false,false],"gutter_label":0,"line_editor":"","line_slope":0.11,"low_consensus":false,"number_views":3,"original_transcriber":"","seen":false,"slope_label":0,"user_ids":[2499181,2493061,2330323]},{"clusters_x":[468.29816831028427,1125.4522047434164],"clusters_y":[328.1632578975389,348.8284796648171],"clusters_text":[["by","by","by","by"],["[unclear]Kernan[/unclear]","[unclear]Kernan[/unclear]","[unclear]Kernow[/unclear]","Kirwan"],["formula","formula","formulas","formula"],["[unclear]xxxxx[/unclear].","[unclear]carb[/unclear].","[unclear]xxxxx[/unclear].","[unclear]cont[/unclear]."],["190.","190.","190.","190."],["[unclear]liq[superscript]r[/superscript][/unclear]","[unclear]liq[superscript]r[/superscript][/unclear]","[unclear]lig[superscript]r[/superscript][/unclear]","[unclear]xxxxx[/unclear]"],["[insertion]of","[insertion]of","[insertion]of","[insertion]of"],["dry","dry","dry","dry"],["salt[/insertion]","salt[/insertion]","salt[/insertion]","salt[/insertion]"],["in","in","in","in"],["air","air","air","air"]],"consensus_text":"by [unclear]Kernan[/unclear] formula [unclear]xxxxx[/unclear]. 190. [unclear]liq[superscript]r[/superscript][/unclear] [insertion]of dry salt[/insertion] in air","consensus_score":3.3636363636363638,"edited_consensus_text":"by [unclear]Kernan[/unclear] formula [unclear]carb[/unclear]. 190. [unclear]liq[superscript]r[/superscript][/unclear] [insertion]of dry salt[/insertion] in air","extract_index":[5,0,5,6],"flagged":false,"gold_standard":[false,false,false,false],"gutter_label":0,"line_editor":"a_s_wolf","line_slope":0.11,"low_consensus":false,"number_views":4,"original_transcriber":"hoskinml","seen":false,"slope_label":0,"user_ids":[2499181,1524758,2493061,2330323]},{"clusters_x":[154.1868013892346,753.4782129324096],"clusters_y":[388.09247197105407,403.59138829651266],"clusters_text":[["[unclear]thousand[/unclear]","thousand","thousand","thousand"],["of","of","of","of"],["water","water","water","water"],["or","or","or","or"],["1001.5","1001.5","1001.5","1001.5"],["in","in","in","in"],["a","a","a","a"],["pint","pint","pint","pint"]],"consensus_text":"thousand of water or 1001.5 in a pint","consensus_score":3.875,"edited_consensus_text":"","extract_index":[6,6,0,5],"flagged":false,"gold_standard":[false,false,false,false],"gutter_label":0,"line_editor":"","line_slope":0.11,"low_consensus":false,"number_views":4,"original_transcriber":"","seen":false,"slope_label":0,"user_ids":[2499181,2493061,311066,2330323]},{"clusters_x":[73.42789414285937,273.1784815345427],"clusters_y":[517.0561735219339,516.0228887841006],"clusters_text":[["April","April","April","April"],["14[superscript]th[/superscript]","14[superscript]th[/superscript]","14[superscript]th[/superscript]-","14[superscript]th[/superscript]"]],"consensus_text":"April 14[superscript]th[/superscript]","consensus_score":3.5,"edited_consensus_text":"","extract_index":[8,7,7,0],"flagged":false,"gold_standard":[false,false,false,false],"gutter_label":0,"line_editor":"","line_slope":0.11,"low_consensus":false,"number_views":4,"original_transcriber":"","seen":false,"slope_label":0,"user_ids":[2499181,2493061,2330323,2444916]},{"clusters_x":[301.94314885000813,1030.3922161465628],"clusters_y":[524.4828646866813,536.8820056302047],"clusters_text":[["A","A","A","A"],["tube","tube","tube","tube"],["[unclear]nearly[/unclear]","nearly","nearly","nearly"],["27","27","27","27"],["inches","inches","inches","inches"],["long","long","long","long"],["used","used","used","used"],["for","for","for","for"],["high","high","high","high"],["\u0026","\u0026","\u0026","\u0026"],["low","low","low","low"],["pressures.","pressures.","pressures.","pressures."]],"consensus_text":"A tube nearly 27 inches long used for high \u0026 low pressures.","consensus_score":3.9166666666666665,"edited_consensus_text":"","extract_index":[7,1,8,8],"flagged":false,"gold_standard":[false,false,false,false],"gutter_label":0,"line_editor":"","line_slope":0.11,"low_consensus":false,"number_views":4,"original_transcriber":"","seen":false,"slope_label":0,"user_ids":[2499181,1524758,2493061,2330323]},{"clusters_x":[70.946534937732,1134.214929550564],"clusters_y":[589.016040090823,591.4974229601713],"clusters_text":[["Atmospheric","Atmospheric","Atmospheric","Atmospheric","Atmospheric","Atmospheric"],["air","air","air","air","air","air"],["from","from","from","from","from","from"],["4","4","4","4","4","4"],["to","to","to","to","to","to"],["3","3","3","3","3","3"],["[unclear]atmospheres[/unclear]","atmosph[superscript]s[/superscript]","atmosph[superscript]r[/superscript]","atmosph[superscript]r[/superscript]","atmosph[superscript]r[/superscript]","atmosph[superscript]r[/superscript]"],["73\"","73\"","73\"","73\"","73\"","73\""],["_","_","_","_","-","_"],["71\"","71\"","71\"","71\"","71\"","71\""],["_","_","_","_","-","_"],["71\"","71\"","71\"","71\"","71\"","71\""],["_","_","_","_","-","_"],["71\"","71\"","71\"","71\"","71\"","71\""],["_","_","_","_","-","_"],["from","from","from","from","from","from"],["","","","","1",""],["13/4","13/4","13/4","13/4","3/4","13/4"],["[insertion]at[/insertion]","[insertion]at[/insertion]","[insertion]at[/insertion]","[insertion]at[/insertion]","[insertion]at[/insertion]","[insertion]at[/insertion]"],["to","to","to","to","to","to"],["","","","1","1",""],["11/2","11/2","11/2","1/2","1/2","11/2"],["[insertion]at[/insertion]","[insertion]at[/insertion]","[insertion]at[/insertion]","[insertion]at[/insertion]","[insertion]at[/insertion]","[insertion]at[/insertion]"],["","","68\"","68\"","68\"","68\""],["condensed","condensed","condensed","condensed","condensed","condensed"],["to","to","to","to","to","to"],["","1","1","1","1","1"],["11/4","1/4","1/4","1/4","1/4","1/4"],["[insertion]at[/insertion]","[insertion]at[/insertion]","[insertion]at[/insertion]","[insertion]at[/insertion]","[insertion]at[/insertion]","[insertion]at[/insertion]"],["_","_","_","_","-","_"],["198\"","198\"","198\"","198\"","198\"","198\""]],"consensus_text":"Atmospheric air from 4 to 3 atmosph[superscript]r[/superscript] 73\" _ 71\" _ 71\" _ 71\" _ from 1 13/4 [insertion]at[/insertion] to 1 11/2 [insertion]at[/insertion] 68\" condensed to 1 1/4 [insertion]at[/insertion] _ 198\"","consensus_score":5.258064516129032,"edited_consensus_text":"","extract_index":[9,2,9,1,9,1],"flagged":false,"gold_standard":[false,false,false,false,false,false],"gutter_label":0,"line_editor":"","line_slope":0.11,"low_consensus":false,"number_views":6,"original_transcriber":"","seen":false,"slope_label":0,"user_ids":[2499181,1524758,2493061,311066,2330323,2444916]},{"clusters_x":[703.6967765352158,1120.5674894186948],"clusters_y":[610.1076950905551,608.8670273201019],"clusters_text":[["_________67\"","_________67\"","---","_________67\"","_________67\""],["_____","_____","67\"","_____","_____"],["","","---","",""],["197\"","197\"","197\"","197\"","197\""]],"consensus_text":"_________67\" _____ --- 197\"","consensus_score":3.5,"edited_consensus_text":"","extract_index":[10,10,11,2,0],"flagged":false,"gold_standard":[false,false,false,false,false],"gutter_label":0,"line_editor":"","line_slope":0.11,"low_consensus":false,"number_views":5,"original_transcriber":"","seen":false,"slope_label":0,"user_ids":[2499181,2493061,2330323,2444916,null]},{"clusters_x":[712.3815455852719,1131.7336886665407],"clusters_y":[639.8841948658501,641.1248626363033],"clusters_text":[["_____","_____","---","_____"],["68\"","68\"","68\"","68\""],["","","---",""],["________198\"","________198\"","198\"","________198\""]],"consensus_text":"_____ 68\" --- ________198\"","consensus_score":2.75,"edited_consensus_text":"","extract_index":[11,11,10,3],"flagged":true,"gold_standard":[false,false,false,false],"gutter_label":0,"line_editor":"","line_slope":0.11,"low_consensus":true,"number_views":4,"original_transcriber":"","seen":false,"slope_label":0,"user_ids":[2499181,2493061,2330323,2444916]},{"clusters_x":[63.502409993908316,1111.8827203686387],"clusters_y":[691.9930268770187,694.474409746367],"clusters_text":[["Carbonic","Carbonic","Carbonic","Carbonic","Carbonic","Carbonic"],["acid","acid","acid","acid","acid","acid"],["d[superscript]o[/superscript]","d[superscript]o[/superscript]","d[superscript]o[/superscript]","d[superscript]o[/superscript]","d[superscript]o[/superscript]","d[superscript]o[/superscript]"],["_____","_____","_____","---","_____","---"],["8[unclear]5[/unclear]\"","8[deletion][unclear]7[/unclear][/deletion]5\"","8[deletion][unclear]7[/unclear][/deletion]5\"","8[deletion]7[/deletion]5\"","8[unclear]5[/unclear]\"","8[deletion]7[/deletion]5\""],["","","","-","","-"],["_83\"_85\"_84\"___","_83\"_85\"_84\"___","_83\"_85\"_84\"___","83\"","_83\"_85\"_84\"___","83\""],["","","","-","","-"],["","","","85\"-","","85\"-"],["","","","84\"","","84\""],["","","","---","","---"],["D[superscript]o[/superscript]","D[superscript]o[/superscript]","D[superscript]o[/superscript]","D[superscript]o[/superscript]","D[superscript]o[/superscript]","D[superscript]o[/superscript]"],["___","___","___","---","___","---"],["56\"","56\"","56\"","56\"","56\"","56\""],["____","____","____","---","____","---"],["163\"","163\"","163\"","163\"","163\"","163\""]],"consensus_text":"Carbonic acid d[superscript]o[/superscript] _____ 8[unclear]5[/unclear]\" - _83\"_85\"_84\"___ - 85\"- 84\" --- D[superscript]o[/superscript] ___ 56\" ____ 163\"","consensus_score":4,"edited_consensus_text":"","extract_index":[12,12,2,12,4,1],"flagged":false,"gold_standard":[false,false,false,false,false,false],"gutter_label":0,"line_editor":"","line_slope":0.11,"low_consensus":false,"number_views":6,"original_transcriber":"","seen":false,"slope_label":0,"user_ids":[2499181,2493061,311066,2330323,2444916,null]},{"clusters_x":[732.2325138831741,1129.2522584687508],"clusters_y":[719.2881153859005,720.5288304847954],"clusters_text":[["","","---",""],["________55\"","________55\"","55\"","________55\""],["","","---",""],["_________165\"","_________165\"","165\"","_________165\""]],"consensus_text":"--- ________55\" --- _________165\"","consensus_score":2,"edited_consensus_text":"","extract_index":[13,13,13,5],"flagged":true,"gold_standard":[false,false,false,false],"gutter_label":0,"line_editor":"","line_slope":0.11,"low_consensus":true,"number_views":4,"original_transcriber":"","seen":false,"slope_label":0,"user_ids":[2499181,2493061,2330323,2444916]},{"clusters_x":[718.5849790944217,1126.7709229278444],"clusters_y":[752.7866658009968,744.1018494224988],"clusters_text":[["","","---",""],["_______57\"","_______57\"","57\"","_______57\""],["","","---",""],["_____[deletion]6[/deletion]","_____[deletion]6[/deletion]","[deletion]6[/deletion]","_____[deletion]6[/deletion]"],["162\"","162\"","162\"","162\""]],"consensus_text":"--- _______57\" --- _____[deletion]6[/deletion] 162\"","consensus_score":2.4,"edited_consensus_text":"","extract_index":[14,14,14,6],"flagged":true,"gold_standard":[false,false,false,false],"gutter_label":0,"line_editor":"","line_slope":0.11,"low_consensus":true,"number_views":4,"original_transcriber":"","seen":false,"slope_label":0,"user_ids":[2499181,2493061,2330323,2444916]},{"clusters_x":[58.53966791943276,1128.0115906982976],"clusters_y":[776.359732067142,777.6003998375953],"clusters_text":[["[unclear]Olifeant","Olefiant","Olefiant","Olefiant"],["[/unclear]gas","gas","gas","gas"],["_____","_____","_____","---"],["74\"","74\"","74\"","74\""],["_","_","_","-"],["73\"","73\"","73\"","73\""],["_","_","_","-"],["74\"","74\"","74\"","74\""],["------","------","------","---"],["D[superscript]o[/superscript]","D[superscript]o[/superscript]","D[superscript]o[/superscript]","D[superscript]o[/superscript]"],["___","___","___","---"],["47\"","47\"","47\"","47\""],["_____","_____","_____","---"],["142\"","142\"","142\"","142\""]],"consensus_text":"Olefiant gas _____ 74\" _ 73\" _ 74\" ------ D[superscript]o[/superscript] ___ 47\" _____ 142\"","consensus_score":3.4285714285714284,"edited_consensus_text":"","extract_index":[15,15,3,15],"flagged":false,"gold_standard":[false,false,false,false],"gutter_label":0,"line_editor":"","line_slope":0.11,"low_consensus":false,"number_views":4,"original_transcriber":"","seen":false,"slope_label":0,"user_ids":[2499181,2493061,311066,2330323]},{"clusters_x":[722.3070770626648,1144.1405556848401],"clusters_y":[807.3768712158253,814.8210198238698],"clusters_text":[["------","------","---","------"],["[unclear]48[/unclear]","[unclear]48[/unclear]","[unclear]68[/unclear]","[unclear]48[/unclear]"],["----","----","---","----"],["144[unclear]\"[/unclear]","144[unclear]\"[/unclear]","144[unclear]\"[/unclear]","144[unclear]\"[/unclear]"]],"consensus_text":"------ [unclear]48[/unclear] ---- 144[unclear]\"[/unclear]","consensus_score":3.25,"edited_consensus_text":"","extract_index":[16,16,16,7],"flagged":false,"gold_standard":[false,false,false,false],"gutter_label":0,"line_editor":"","line_slope":0.11,"low_consensus":false,"number_views":4,"original_transcriber":"","seen":false,"slope_label":0,"user_ids":[2499181,2493061,2330323,2444916]},{"clusters_x":[783.1007443837079,1124.289587386938],"clusters_y":[834.671988121772,844.5974722707231],"clusters_text":[["----","----","---","----"],["49\"","49\"","49\"","49\""],["------14[unclear]6[/unclear][deletion][unclear]7[/unclear][/deletion]\"","------14[unclear]6[/unclear][deletion][unclear]7[/unclear][/deletion]\"","---14[deletion]6[/deletion]7\"","------14[unclear]6[/unclear][deletion][unclear]7[/unclear][/deletion]\""]],"consensus_text":"---- 49\" ------14[unclear]6[/unclear][deletion][unclear]7[/unclear][/deletion]\"","consensus_score":3.3333333333333335,"edited_consensus_text":"","extract_index":[17,17,17,8],"flagged":false,"gold_standard":[false,false,false,false],"gutter_label":0,"line_editor":"","line_slope":0.11,"low_consensus":false,"number_views":4,"original_transcriber":"","seen":false,"slope_label":0,"user_ids":[2499181,2493061,2330323,2444916]},{"clusters_x":[64.7431014285824,253.3274659081988],"clusters_y":[853.2822697178442,848.3195513075896],"clusters_text":[["April.","April.","April."],["16[superscript]th[/superscript].","16[superscript]th[/superscript].","16[superscript]th[/superscript]."]],"consensus_text":"April. 16[superscript]th[/superscript].","consensus_score":3,"edited_consensus_text":"","extract_index":[20,18,18],"flagged":false,"gold_standard":[false,false,false],"gutter_label":0,"line_editor":"","line_slope":0.11,"low_consensus":false,"number_views":3,"original_transcriber":"","seen":false,"slope_label":0,"user_ids":[2499181,2493061,2330323]},{"clusters_x":[274.04509158102616,1112.0198578936245],"clusters_y":[846.8603084899074,871.6585903769542],"clusters_text":[["Exp[superscript]ts[/superscript]","Exp[superscript]ts[/superscript]","Exp[superscript]ts[/superscript]","Exp[superscript]ts[/superscript]"],["made","made","made","made"],["to","to","to","to"],["ascertain","ascertain","ascertain","ascertain"],["the","the","the","the"],["ratio","ratio","ratio","ratio"],["of","of","of","of"],["decrease","decrease","decrease","decrease"],["in","in","in","in"],["the","the","the","the"],["reactance","resistance","[unclear]resistance[/unclear]","[unclear]resistance[/unclear]"]],"consensus_text":"Exp[superscript]ts[/superscript] made to ascertain the ratio of decrease in the [unclear]resistance[/unclear]","consensus_score":3.8181818181818183,"edited_consensus_text":"","extract_index":[18,3,19,4],"flagged":false,"gold_standard":[false,false,false,false],"gutter_label":0,"line_editor":"","line_slope":0.11,"low_consensus":false,"number_views":4,"original_transcriber":"","seen":false,"slope_label":0,"user_ids":[2499181,1524758,2493061,311066]},{"clusters_x":[221.1908663950204,1121.9091118057393],"clusters_y":[908.7041437880072,916.3373421630718],"clusters_text":[["to","to","to"],["the","the","the"],["passage","passage","passage"],["of","of","of"],["gases","gases","gases"],["at","at","at"],["different","different","different"],["pressures","pressures","pressures"],["\u0026","\u0026","\u0026"],["the","the","the"],["different","different","different"],["ratios","ratios","ratios"]],"consensus_text":"to the passage of gases at different pressures \u0026 the different ratios","consensus_score":3,"edited_consensus_text":"","extract_index":[19,20,19],"flagged":false,"gold_standard":[false,false,false],"gutter_label":0,"line_editor":"","line_slope":0.11,"low_consensus":false,"number_views":3,"original_transcriber":"","seen":false,"slope_label":0,"user_ids":[2499181,2493061,2330323]},{"clusters_x":[218.32840335513586,537.9689083428673],"clusters_y":[980.2654468004141,983.1278916413182],"clusters_text":[["of","of","of"],["the","the","the"],["different","different","different"],["gases","gases","gases"]],"consensus_text":"of the different gases","consensus_score":3,"edited_consensus_text":"","extract_index":[21,21,20],"flagged":false,"gold_standard":[false,false,false],"gutter_label":0,"line_editor":"","line_slope":0.11,"low_consensus":false,"number_views":3,"original_transcriber":"","seen":false,"slope_label":0,"user_ids":[2499181,2493061,2330323]},{"clusters_x":[242.01399390016675,1128.552019541134],"clusters_y":[1040.0802187286795,1035.947079777346],"clusters_text":[["[unclear]Olifeant[/unclear]","[unclear]Olefeant[/unclear]","[unclear]Olifeant[/unclear]","Olefiant"],["gas","gas","gas","gas"],["through","through","through","through"],["","","","a"],["tube","tube","tube","tube"],["of","of","of","of"],["27","27","27","27"],["inches","inches","inches","inches"],["in","in","in","in"],["length","length","length","length"],["from","from","from","from"],["4","4","4","4"],["atmos","atmos","atmos","atmos-"]],"consensus_text":"[unclear]Olifeant[/unclear] gas through a tube of 27 inches in length from 4 atmos","consensus_score":3.5384615384615383,"edited_consensus_text":"","extract_index":[22,22,5,21],"flagged":false,"gold_standard":[false,false,false,false],"gutter_label":0,"line_editor":"","line_slope":0.11,"low_consensus":false,"number_views":4,"original_transcriber":"","seen":false,"slope_label":0,"user_ids":[2499181,2493061,311066,2330323]},{"clusters_x":[126.28874412025263,1029.358970824512],"clusters_y":[1101.0425598768982,1095.8762544350786],"clusters_text":[["pheres","pheres","pheres","pheres","pheres"],["to","to","to","to","to"],["[underline]3.75","[underline]3.75","[underline]3.75","[underline]3.75","[underline]3.75"],["3.5","3.5","3.5","3.5","3.5"],["","","3.25","",""],["","","3","",""],["","","2.75","",""],["","","2.5","",""],["","","2.25","",""],["","","2","",""],["","","1.75","",""],["","","1.5","",""],["3.25..3..2.75..2.5..2.25..2..1.75..1.5..1.25[/underline]","3.25..3..2.75..2.5..2.25..2..1.75..1.5..1.25[/underline]","1.25[/underline]","3.25..3..2.75..2.5..2.25..2..1.75..1.5..1.25[/underline]","3.25..3..2.75..2.5..2.25..2..1.75..1.5..1.25[/underline]"]],"consensus_text":"pheres to [underline]3.75 3.5 3.25 3 2.75 2.5 2.25 2 1.75 1.5 3.25..3..2.75..2.5..2.25..2..1.75..1.5..1.25[/underline]","consensus_score":2.4615384615384617,"edited_consensus_text":"","extract_index":[24,23,22,9,2],"flagged":true,"gold_standard":[false,false,false,false,false],"gutter_label":0,"line_editor":"","line_slope":0.11,"low_consensus":true,"number_views":5,"original_transcriber":"","seen":false,"slope_label":0,"user_ids":[2499181,2493061,2330323,2444916,null]},{"clusters_x":[260.6126856075606,1014.8932998211042],"clusters_y":[1137.206697969635,1125.8408023481625],"clusters_text":[["0","0","0","0"],["_","_","-","_"],["33","33","33","33"],["_","_","-","_"],["0","0","0","0"],["_","_","-","_"],["75","75","75","75"],["_","_","-","_"],["100","100","100","100"],["_","_","-","_"],["128.5","128.5","128.5","128.5"],["_","_","-","_"],["158","158","158","158"],["_","_","-","_"],["193","193","193","193"],["_","_","-","_"],["230","230","230","230"],["_","_","-","_"],["277","277","277","277"],["_","_","-","_"],["364","364","364","364"]],"consensus_text":"0 _ 33 _ 0 _ 75 _ 100 _ 128.5 _ 158 _ 193 _ 230 _ 277 _ 364","consensus_score":3.5238095238095237,"edited_consensus_text":"","extract_index":[25,25,23,10],"flagged":false,"gold_standard":[false,false,false,false],"gutter_label":0,"line_editor":"","line_slope":0.11,"low_consensus":false,"number_views":4,"original_transcriber":"","seen":false,"slope_label":0,"user_ids":[2499181,2493061,2330323,2444916]},{"clusters_x":[51.09554297560902,1026.275319010997],"clusters_y":[1159.7318945355246,1158.4912267650714],"clusters_text":[["in","in","in","in"],["a","a","a","a"],["2[superscript]nd[/superscript]","2[superscript]nd[/superscript]","2[superscript]nd[/superscript]","2[superscript]nd[/superscript]"],["Exp[superscript]t[/superscript]","Exp[superscript]t[/superscript]","Exp[superscript]t[/superscript]","Exp[superscript]t[/superscript]"],["____","____","---","____"],["13","13","13","13"],["_","_","-","_"],["33","33","33","33"],["_","_","-","_"],["52","52","52","52"],["_","_","-","_"],["75","75","75","75"],["_","_","-","_"],["100","100","100","100"],["_","_","-","_"],["128.5","128.5","128.3","128.5"],["_","_","-","_"],["158","158","158","158"],["_","_","-","_"],["194","194","194","194"],["_","_","-","_"],["232","232","232","232"],["_","_","-","_"],["279","279","279","279"],["_","_","-","_"],["365.5","365.5","365.5","365.5"]],"consensus_text":"in a 2[superscript]nd[/superscript] Exp[superscript]t[/superscript] ____ 13 _ 33 _ 52 _ 75 _ 100 _ 128.5 _ 158 _ 194 _ 232 _ 279 _ 365.5","consensus_score":3.5384615384615383,"edited_consensus_text":"","extract_index":[26,26,25,11],"flagged":false,"gold_standard":[false,false,false,false],"gutter_label":0,"line_editor":"","line_slope":0.11,"low_consensus":false,"number_views":4,"original_transcriber":"","seen":false,"slope_label":0,"user_ids":[2499181,2493061,2330323,2444916]},{"clusters_x":[52.33623441028311,1022.5532210427539],"clusters_y":[1209.3593626087218,1188.2676792119246],"clusters_text":[["---","---","---","---"],["3[superscript]rd[/superscript]","3[superscript]rd[/superscript]","3[superscript]rd[/superscript]","3[superscript]rd[/superscript]"],["Exp[superscript]t[/superscript]","Exp[superscript]t[/superscript]","Exp[superscript]t[/superscript]","Exp[superscript]t[/superscript]"],["____","____","---","____"],["13","13","13","13"],["_","_","-","_"],["33","33","33","33"],["_","_","-","_"],["52","52","52","52"],["_","_","-","_"],["75","75","75","75"],["_","_","-","_"],["100.3","100.3","100.3","100.3"],["_","_","-","_"],["128.5","128.5","128.5","128.5"],["_","_","-","_"],["158","158","158","158"],["_","_","-","_"],["193","193","193","193"],["_","_","","_"],["230.5","230.5","230.5","230.5"],["_","_","-","_"],["278","278","278","278"],["_","_","-","_"],["365","365","365","365"]],"consensus_text":"--- 3[superscript]rd[/superscript] Exp[superscript]t[/superscript] ____ 13 _ 33 _ 52 _ 75 _ 100.3 _ 128.5 _ 158 _ 193 _ 230.5 _ 278 _ 365","consensus_score":3.56,"edited_consensus_text":"","extract_index":[27,27,26,12],"flagged":false,"gold_standard":[false,false,false,false],"gutter_label":0,"line_editor":"","line_slope":0.11,"low_consensus":false,"number_views":4,"original_transcriber":"","seen":false,"slope_label":0,"user_ids":[2499181,2493061,2330323,2444916]},{"clusters_x":[245.11376928210197,827.87305859355],"clusters_y":[1269.4641093970586,1257.0650472851003],"clusters_text":[["Same","Same","Same"],["gas","gas","gas"],["through","through","through"],["a","a","a"],["tube","tube","tube"],["of","of","of"],["10","10","10"],["inches","inches","inches"]],"consensus_text":"Same gas through a tube of 10 inches","consensus_score":3,"edited_consensus_text":"","extract_index":[28,28,27],"flagged":false,"gold_standard":[false,false,false],"gutter_label":0,"line_editor":"","line_slope":0.11,"low_consensus":false,"number_views":3,"original_transcriber":"","seen":false,"slope_label":0,"user_ids":[2499181,2493061,2330323]},{"clusters_x":[123.18896873831739,1031.4254614686138],"clusters_y":[1318.0273884333187,1276.6969448987625],"clusters_text":[["2[superscript]nd[/superscript]","2[superscript]nd[/superscript]","2[superscript]nd[/superscript]","2[superscript]nd[/superscript]"],["Exp[superscript]t[/superscript]","Exp[superscript]ts[/superscript]","Exp[superscript]ts[/superscript]","Exp[superscript]ts[/superscript]"],["10.5","10.5","10.5","10.5"],["_","_","_","-"],["23","23","23","23"],["_","_","_","-"],["37","37","37","37"],["_","_","_","-"],["59.5","59.5","59.5","53.5"],["_","_","_","-"],["71","71","71","71"],["_","_","_","-"],["91.5","91.5","91.5","91.5"],["_","_","_","-"],["113.5","113.5","113.5","113.5"],["_","_","_","-"],["139","139","139","139"],["_","_","_","-"],["171","171","171","171"],["_","_","_","-"],["210.5","210.5","210.5","210.5"],["_","_","_","-"],["261","261","261","261"]],"consensus_text":"2[superscript]nd[/superscript] Exp[superscript]ts[/superscript] 10.5 _ 23 _ 37 _ 59.5 _ 71 _ 91.5 _ 113.5 _ 139 _ 171 _ 210.5 _ 261","consensus_score":3.4782608695652173,"edited_consensus_text":"","extract_index":[29,29,6,28],"flagged":false,"gold_standard":[false,false,false,false],"gutter_label":0,"line_editor":"","line_slope":0.11,"low_consensus":false,"number_views":4,"original_transcriber":"","seen":false,"slope_label":0,"user_ids":[2499181,2493061,311066,2330323]},{"clusters_x":[699.7486678701125,1040.7248270302018],"clusters_y":[1326.2934692570736,1314.9275736356012],"clusters_text":[["_","_","-","_"],["139","139","139","139"],["_","_","-","_"],["170.5","170.5","170.5","170.5"],["_","_","-","_"],["210","210","210","210"],["_","_","-","_"],["261","261","261","261"]],"consensus_text":"_ 139 _ 170.5 _ 210 _ 261","consensus_score":3.5,"edited_consensus_text":"","extract_index":[30,30,29,13],"flagged":false,"gold_standard":[false,false,false,false],"gutter_label":0,"line_editor":"","line_slope":0.11,"low_consensus":false,"number_views":4,"original_transcriber":"","seen":false,"slope_label":0,"user_ids":[2499181,2493061,2330323,2444916]},{"clusters_x":[316.40878043763337,1037.625012232484],"clusters_y":[1391.388988772408,1369.690442851514],"clusters_text":[["through","through","through"],["a","a","a"],["tube","tube","tube"],["of","of","of"],["2","2","2"],["inches","inches","inches"],["-","-","-"],["([insertion]from[/insertion]","([insertion]from[/insertion]","([insertion]from[/insertion]"],["same","same","same"],["[unclear]piece[/unclear]","[unclear]piece[/unclear]","[unclear]piece[/unclear]"],["as","as","as"],["last)","last)","last)"]],"consensus_text":"through a tube of 2 inches - ([insertion]from[/insertion] same [unclear]piece[/unclear] as last)","consensus_score":3,"edited_consensus_text":"","extract_index":[31,31,30],"flagged":false,"gold_standard":[false,false,false],"gutter_label":0,"line_editor":"","line_slope":0.11,"low_consensus":false,"number_views":3,"original_transcriber":"","seen":false,"slope_label":0,"user_ids":[2499181,2493061,2330323]},{"clusters_x":[260.23499719793267,1025.6440023602597],"clusters_y":[1424.5263781179792,1402.8345724104597],"clusters_text":[["5.5","5.5","5.5-","5.5"],["_","_","","_"],["12.5","12.5","12.5","12.5"],["_","_","-","_"],["19","19","19","19"],["_","_","-","_"],["28","28","28","28"],["_","_","-","_"],["37","37","37","37"],["_","_","-","_"],["47","47","47","47"],["_","_","-","_"],["58","58","58","58"],["_","_","-","_"],["71","71","71","71"],["_","_","-","_"],["87","87","87","87"],["_","_","-","_"],["106.5","106.5","106.5","106.5"],["_","_","-","_"],["134","134","134","134"]],"consensus_text":"5.5 _ 12.5 _ 19 _ 28 _ 37 _ 47 _ 58 _ 71 _ 87 _ 106.5 _ 134","consensus_score":3.4761904761904763,"edited_consensus_text":"","extract_index":[32,33,31,14],"flagged":false,"gold_standard":[false,false,false,false],"gutter_label":0,"line_editor":"","line_slope":0.11,"low_consensus":false,"number_views":4,"original_transcriber":"","seen":false,"slope_label":0,"user_ids":[2499181,2493061,2330323,2444916]},{"clusters_x":[771.5405921405718,1038.8139713151331],"clusters_y":[1446.992788793312,1429.949263051357],"clusters_text":[["71","71","71","71"],["_","_","-","_"],["87","87","87","87"],["_","_","-","_"],["106","106","106","106"],["_","_","-","_"],["133.5","133.5","133.5","133.5"]],"consensus_text":"71 _ 87 _ 106 _ 133.5","consensus_score":3.5714285714285716,"edited_consensus_text":"","extract_index":[33,34,33,3],"flagged":false,"gold_standard":[false,false,false,false],"gutter_label":0,"line_editor":"","line_slope":0.11,"low_consensus":false,"number_views":4,"original_transcriber":"","seen":false,"slope_label":0,"user_ids":[2499181,2493061,2330323,null]},{"clusters_x":[119.05592832644001,246.1470343120441],"clusters_y":[1454.4178284478849,1448.2182776840145],"clusters_text":[["2[superscript]nd[/superscript]","2[superscript]nd[/superscript]","2[superscript]nd[/superscript]","2[superscript]nd[/superscript]"],["Exp[superscript]t[/superscript]","Exp[superscript]ts[/superscript].","Exp[superscript]t[/superscript]","Exp[superscript]ts[/superscript]"]],"consensus_text":"2[superscript]nd[/superscript] Exp[superscript]t[/superscript]","consensus_score":3,"edited_consensus_text":"","extract_index":[34,32,7,32],"flagged":false,"gold_standard":[false,false,false,false],"gutter_label":0,"line_editor":"","line_slope":0.11,"low_consensus":false,"number_views":4,"original_transcriber":"","seen":false,"slope_label":0,"user_ids":[2499181,2493061,311066,2330323]},{"clusters_x":[1094.454367406084,1096.5208580501858],"clusters_y":[1406.0160439554602,1066.0731301174214],"clusters_text":[["times","times","times"],["[unclear]are","[unclear]are","[unclear]are"],["[/unclear]taken","[/unclear]taken","[/unclear]taken"],["in","in","in"],["seconds","seconds","seconds"]],"consensus_text":"times [unclear]are [/unclear]taken in seconds","consensus_score":3,"edited_consensus_text":"times [unclear]are[/unclear] taken in seconds","extract_index":[23,24,24],"flagged":false,"gold_standard":[false,false,false],"gutter_label":0,"line_editor":"a_s_wolf","line_slope":-89.65199999999999,"low_consensus":false,"number_views":3,"original_transcriber":"","seen":false,"slope_label":1,"user_ids":[2499181,2493061,2330323]}]}